LAMMPS (27 Aug 2016-ICMS)
WARNING: OMP_NUM_THREADS environment is not set. Defaulting to 1 thread. (../comm.cpp:90)
  using 1 OpenMP thread(s) per MPI task
Lattice spacing in x,y,z = 1.88207 1.88207 1.88207
Created orthogonal box = (0 0 0) to (18.8207 18.8207 37.6414)
  1 by 1 by 1 MPI processor grid
Created 8000 atoms
Neighbor list info ...
  1 neighbor list requests
  update every 1 steps, delay 0 steps, check yes
  max neighbors/atom: 2000, page size: 100000
  master list distance cutoff = 2.8
  ghost atom cutoff = 2.8
  binsize = 1.4, bins = 14 14 27
Setting up Verlet run ...
  Unit style    : lj
  Current step  : 0
  Time step     : 0.005
Memory usage per processor = 2.7013 Mbytes
Step Temp E_pair E_mol TotEng Press 
       0         1.35   -4.1241917            0   -2.0994448   -3.1961613 
     100    1.1872068    -3.770585            0   -1.9899974   0.50876678 
     200    1.2623273   -3.7436709            0   -1.8504166   0.64576172 
     300    1.3232893   -3.7100115            0   -1.7253256   0.77952968 
     400     1.376056   -3.7037794            0   -1.6399534   0.84369178 
     500    1.3804885   -3.6952486            0   -1.6247747   0.86182223 
     600    1.3466801   -3.7003367            0    -1.680569   0.85207011 
     700    1.3135776   -3.6912719            0   -1.7211517   0.87163831 
     800    1.3301143    -3.696371            0    -1.701449   0.85570562 
     900    1.3746192   -3.7187037            0   -1.6570325   0.85271251 
    1000     1.366021   -3.7049251            0   -1.6561498   0.89219694 
Loop time of 6.08537 on 1 procs for 1000 steps with 8000 atoms

Performance: 70989.967 tau/day, 164.329 timesteps/s
99.4% CPU use with 1 MPI tasks x 1 OpenMP threads

MPI task timing breakdown:
Section |  min time  |  avg time  |  max time  |%varavg| %total
---------------------------------------------------------------
Pair    | 3.8094     | 3.8094     | 3.8094     |   0.0 | 62.60
Neigh   | 1.896      | 1.896      | 1.896      |   0.0 | 31.16
Comm    | 0.096761   | 0.096761   | 0.096761   |   0.0 |  1.59
Output  | 0          | 0          | 0          |   0.0 |  0.00
Modify  | 0.15826    | 0.15826    | 0.15826    |   0.0 |  2.60
Other   |            | 0.125      |            |       |  2.05

Nlocal:    8000 ave 8000 max 8000 min
Histogram: 1 0 0 0 0 0 0 0 0 0
Nghost:    7441 ave 7441 max 7441 min
Histogram: 1 0 0 0 0 0 0 0 0 0
Neighs:    217087 ave 217087 max 217087 min
Histogram: 1 0 0 0 0 0 0 0 0 0

Total # of neighbors = 217087
Ave neighs/atom = 27.1359
Neighbor list builds = 160
Dangerous builds = 0
Setting up Verlet run ...
  Unit style    : lj
  Current step  : 1000
  Time step     : 0.005
Memory usage per processor = 2.96484 Mbytes
Step Temp E_pair TotEng f_3 v_tdiff 
    1000         1.35   -3.7049251   -1.6801782            0            0 
    2000    1.3543365   -3.7117548    -1.680504    909.33042   0.21502689 
    3000    1.3653964   -3.7293011   -1.6814625    1786.9685   0.39563558 
    4000    1.3676151   -3.7334439   -1.6822777    2640.0753   0.58611516 
    5000    1.3814481   -3.7563791   -1.6844661    3479.3859   0.69796348 
    6000    1.3805397   -3.7553341   -1.6847834    4272.3134   0.77885796 
